# written by ease4lmp.LammpsWriter at 2018/06/02 10:16:47

2 atoms

1 atom types

  0.00000000e+00   1.10000000e+00 xlo xhi
  0.00000000e+00   1.10000000e+00 ylo yhi
  0.00000000e+00   2.20000000e+00 zlo zhi

Atoms

1 1 0  0.00000000e+00  0.00000000e+00  0.00000000e+00
2 1 0  0.00000000e+00  0.00000000e+00  1.10000000e+00
