# written by ease4lmp.LammpsWriter at 2018/06/03 06:06:20

32 atoms

2 atom types

 0.00000000e+00  1.02106219e+01  xlo xhi
 0.00000000e+00  8.84265797e+00  ylo yhi
 0.00000000e+00  2.20842345e+01  zlo zhi

-5.10531096e+00  0.00000000e+00  0.00000000e+00  xy xz yz

Masses

   1  63.546000
   2  63.546000

Atoms

       1    2  0.00000000e+00  1.47377633e+00  1.00000000e+01
       2    2  2.55265548e+00  1.47377633e+00  1.00000000e+01
       3    2  5.10531096e+00  1.47377633e+00  1.00000000e+01
       4    2  7.65796644e+00  1.47377633e+00  1.00000000e+01
       5    2  1.27632774e+00  3.68444082e+00  1.00000000e+01
       6    2  3.82898322e+00  3.68444082e+00  1.00000000e+01
       7    2  6.38163870e+00  3.68444082e+00  1.00000000e+01
       8    2  8.93429418e+00  3.68444082e+00  1.00000000e+01
       9    2  2.55265548e+00  5.89510531e+00  1.00000000e+01
      10    2  5.10531096e+00  5.89510531e+00  1.00000000e+01
      11    2  7.65796644e+00  5.89510531e+00  1.00000000e+01
      12    2  1.02106219e+01  5.89510531e+00  1.00000000e+01
      13    2  3.82898322e+00  8.10576981e+00  1.00000000e+01
      14    2  6.38163870e+00  8.10576981e+00  1.00000000e+01
      15    2  8.93429418e+00  8.10576981e+00  1.00000000e+01
      16    2  1.14869497e+01  8.10576981e+00  1.00000000e+01
      17    1  0.00000000e+00  0.00000000e+00  1.20842345e+01
      18    1  2.55265548e+00  0.00000000e+00  1.20842345e+01
      19    1  5.10531096e+00  0.00000000e+00  1.20842345e+01
      20    1  7.65796644e+00  0.00000000e+00  1.20842345e+01
      21    1  1.27632774e+00  2.21066449e+00  1.20842345e+01
      22    1  3.82898322e+00  2.21066449e+00  1.20842345e+01
      23    1  6.38163870e+00  2.21066449e+00  1.20842345e+01
      24    1  8.93429418e+00  2.21066449e+00  1.20842345e+01
      25    1  2.55265548e+00  4.42132899e+00  1.20842345e+01
      26    1  5.10531096e+00  4.42132899e+00  1.20842345e+01
      27    1  7.65796644e+00  4.42132899e+00  1.20842345e+01
      28    1  1.02106219e+01  4.42132899e+00  1.20842345e+01
      29    1  3.82898322e+00  6.63199348e+00  1.20842345e+01
      30    1  6.38163870e+00  6.63199348e+00  1.20842345e+01
      31    1  8.93429418e+00  6.63199348e+00  1.20842345e+01
      32    1  1.14869497e+01  6.63199348e+00  1.20842345e+01
