# written by ease4lmp.LammpsWriter at 2019/02/15 21:21:45

8 atoms
7 bonds
10 angles
8 dihedrals
5 impropers

6 atom types
5 bond types
6 angle types
4 dihedral types
3 improper types

0.00000000e+00 5.00000000e+00  xlo xhi
0.00000000e+00 5.00000000e+00  ylo yhi
0.00000000e+00 5.00000000e+00  zlo zhi

Masses

   1  12.011000
   2  15.999000
   3  15.999000
   4   1.008000
   5  12.011000
   6   1.008000

Atoms

       1      1    1  2.40972850e+00  2.73869450e+00  2.50000000e+00
       2      1    2  2.57611250e+00  3.94421850e+00  2.50000000e+00
       3      1    3  1.17327950e+00  2.16909850e+00  2.50000000e+00
       4      1    4  5.42082500e-01  2.91771650e+00  2.50000000e+00
       5      1    5  3.48350450e+00  1.69138650e+00  2.50000000e+00
       6      1    6  4.45791750e+00  2.17599950e+00  2.50000000e+00
       7      1    6  3.37838950e+00  1.05578150e+00  3.38174700e+00
       8      1    6  3.37838950e+00  1.05578150e+00  1.61825300e+00

Bonds

1 1 1 2
2 3 5 8
3 5 3 4
4 3 5 7
5 4 1 5
6 3 5 6
7 2 1 3

Angles

1 6 2 1 3
2 3 2 1 5
3 1 3 1 5
4 5 1 3 4
5 4 1 5 6
6 4 1 5 7
7 4 1 5 8
8 2 6 5 7
9 2 6 5 8
10 2 7 5 8

Dihedrals

1 3 5 1 3 4
2 4 2 1 5 7
3 2 3 1 5 6
4 2 3 1 5 8
5 1 4 3 1 2
6 4 6 5 1 2
7 4 8 5 1 2
8 2 7 5 1 3

Impropers

1 1 1 2 3 5
2 2 5 1 6 7
3 2 5 1 6 8
4 2 5 1 7 8
5 3 5 6 7 8
