# written by ease4lmp.LammpsWriter at 2019/02/15 21:21:42

6 atoms
5 bonds
7 angles
3 dihedrals
4 impropers

4 atom types
3 bond types
3 angle types
1 dihedral types
2 improper types

0.00000000e+00 5.00000000e+00  xlo xhi
0.00000000e+00 5.00000000e+00  ylo yhi
0.00000000e+00 5.00000000e+00  zlo zhi

Masses

   1  12.011000
   2  15.999000
   3   1.008000
   4   1.008000

Atoms

       1      1    1  2.56009950e+00  3.14843000e+00  2.50000000e+00
       2      1    2  2.56009950e+00  1.72549000e+00  2.50000000e+00
       3      1    3  1.51423550e+00  3.45382600e+00  2.50000000e+00
       4      1    4  3.48576450e+00  1.43558300e+00  2.50000000e+00
       5      1    3  3.04437550e+00  3.56441700e+00  3.39177200e+00
       6      1    3  3.04437550e+00  3.56441700e+00  1.60822800e+00

Bonds

1 1 1 2
2 3 2 4
3 2 1 6
4 2 1 5
5 2 1 3

Angles

1 2 2 1 3
2 2 2 1 5
3 2 2 1 6
4 1 3 1 5
5 1 3 1 6
6 1 5 1 6
7 3 1 2 4

Dihedrals

1 1 5 1 2 4
2 1 4 2 1 3
3 1 4 2 1 6

Impropers

1 1 1 2 3 5
2 1 1 2 3 6
3 1 1 2 5 6
4 2 1 3 5 6
