# written by ease4lmp.LammpsWriter at 2019/02/15 07:29:09

500 atoms
1500 bonds
7500 angles
37500 dihedrals
10000 impropers

2 atom types
1 bond types
2 angle types
1 dihedral types
2 improper types

0.00000000e+00 1.99404112e+01  xlo xhi
0.00000000e+00 1.99404112e+01  ylo yhi
0.00000000e+00 2.82000000e+01  zlo zhi

Masses

   1  22.989769
   2  35.450000

Atoms

       1      0    1  0.00000000e+00  0.00000000e+00  0.00000000e+00
       2      0    2  1.99404112e+00  1.99404112e+00  0.00000000e+00
       3      0    1  1.99404112e+00  1.99404112e+00  2.82000000e+00
       4      0    2  0.00000000e+00  0.00000000e+00  2.82000000e+00
       5      0    1  0.00000000e+00  0.00000000e+00  5.64000000e+00
       6      0    2  1.99404112e+00  1.99404112e+00  5.64000000e+00
       7      0    1  1.99404112e+00  1.99404112e+00  8.46000000e+00
       8      0    2  0.00000000e+00  0.00000000e+00  8.46000000e+00
       9      0    1  0.00000000e+00  0.00000000e+00  1.12800000e+01
      10      0    2  1.99404112e+00  1.99404112e+00  1.12800000e+01
      11      0    1  1.99404112e+00  1.99404112e+00  1.41000000e+01
      12      0    2  0.00000000e+00  0.00000000e+00  1.41000000e+01
      13      0    1  0.00000000e+00  0.00000000e+00  1.69200000e+01
      14      0    2  1.99404112e+00  1.99404112e+00  1.69200000e+01
      15      0    1  1.99404112e+00  1.99404112e+00  1.97400000e+01
      16      0    2  0.00000000e+00  0.00000000e+00  1.97400000e+01
      17      0    1  0.00000000e+00  0.00000000e+00  2.25600000e+01
      18      0    2  1.99404112e+00  1.99404112e+00  2.25600000e+01
      19      0    1  1.99404112e+00  1.99404112e+00  2.53800000e+01
      20      0    2  0.00000000e+00  0.00000000e+00  2.53800000e+01
      21      0    1  0.00000000e+00  3.98808225e+00  0.00000000e+00
      22      0    2  1.99404112e+00  5.98212337e+00  0.00000000e+00
      23      0    1  1.99404112e+00  5.98212337e+00  2.82000000e+00
      24      0    2  0.00000000e+00  3.98808225e+00  2.82000000e+00
      25      0    1  0.00000000e+00  3.98808225e+00  5.64000000e+00
      26      0    2  1.99404112e+00  5.98212337e+00  5.64000000e+00
      27      0    1  1.99404112e+00  5.98212337e+00  8.46000000e+00
      28      0    2  0.00000000e+00  3.98808225e+00  8.46000000e+00
      29      0    1  0.00000000e+00  3.98808225e+00  1.12800000e+01
      30      0    2  1.99404112e+00  5.98212337e+00  1.12800000e+01
      31      0    1  1.99404112e+00  5.98212337e+00  1.41000000e+01
      32      0    2  0.00000000e+00  3.98808225e+00  1.41000000e+01
      33      0    1  0.00000000e+00  3.98808225e+00  1.69200000e+01
      34      0    2  1.99404112e+00  5.98212337e+00  1.69200000e+01
      35      0    1  1.99404112e+00  5.98212337e+00  1.97400000e+01
      36      0    2  0.00000000e+00  3.98808225e+00  1.97400000e+01
      37      0    1  0.00000000e+00  3.98808225e+00  2.25600000e+01
      38      0    2  1.99404112e+00  5.98212337e+00  2.25600000e+01
      39      0    1  1.99404112e+00  5.98212337e+00  2.53800000e+01
      40      0    2  0.00000000e+00  3.98808225e+00  2.53800000e+01
      41      0    1  0.00000000e+00  7.97616449e+00  0.00000000e+00
      42      0    2  1.99404112e+00  9.97020561e+00  0.00000000e+00
      43      0    1  1.99404112e+00  9.97020561e+00  2.82000000e+00
      44      0    2  0.00000000e+00  7.97616449e+00  2.82000000e+00
      45      0    1  0.00000000e+00  7.97616449e+00  5.64000000e+00
      46      0    2  1.99404112e+00  9.97020561e+00  5.64000000e+00
      47      0    1  1.99404112e+00  9.97020561e+00  8.46000000e+00
      48      0    2  0.00000000e+00  7.97616449e+00  8.46000000e+00
      49      0    1  0.00000000e+00  7.97616449e+00  1.12800000e+01
      50      0    2  1.99404112e+00  9.97020561e+00  1.12800000e+01
      51      0    1  1.99404112e+00  9.97020561e+00  1.41000000e+01
      52      0    2  0.00000000e+00  7.97616449e+00  1.41000000e+01
      53      0    1  0.00000000e+00  7.97616449e+00  1.69200000e+01
      54      0    2  1.99404112e+00  9.97020561e+00  1.69200000e+01
      55      0    1  1.99404112e+00  9.97020561e+00  1.97400000e+01
      56      0    2  0.00000000e+00  7.97616449e+00  1.97400000e+01
      57      0    1  0.00000000e+00  7.97616449e+00  2.25600000e+01
      58      0    2  1.99404112e+00  9.97020561e+00  2.25600000e+01
      59      0    1  1.99404112e+00  9.97020561e+00  2.53800000e+01
      60      0    2  0.00000000e+00  7.97616449e+00  2.53800000e+01
      61      0    1  0.00000000e+00  1.19642467e+01  0.00000000e+00
      62      0    2  1.99404112e+00  1.39582879e+01  0.00000000e+00
      63      0    1  1.99404112e+00  1.39582879e+01  2.82000000e+00
      64      0    2  0.00000000e+00  1.19642467e+01  2.82000000e+00
      65      0    1  0.00000000e+00  1.19642467e+01  5.64000000e+00
      66      0    2  1.99404112e+00  1.39582879e+01  5.64000000e+00
      67      0    1  1.99404112e+00  1.39582879e+01  8.46000000e+00
      68      0    2  0.00000000e+00  1.19642467e+01  8.46000000e+00
      69      0    1  0.00000000e+00  1.19642467e+01  1.12800000e+01
      70      0    2  1.99404112e+00  1.39582879e+01  1.12800000e+01
      71      0    1  1.99404112e+00  1.39582879e+01  1.41000000e+01
      72      0    2  0.00000000e+00  1.19642467e+01  1.41000000e+01
      73      0    1  0.00000000e+00  1.19642467e+01  1.69200000e+01
      74      0    2  1.99404112e+00  1.39582879e+01  1.69200000e+01
      75      0    1  1.99404112e+00  1.39582879e+01  1.97400000e+01
      76      0    2  0.00000000e+00  1.19642467e+01  1.97400000e+01
      77      0    1  0.00000000e+00  1.19642467e+01  2.25600000e+01
      78      0    2  1.99404112e+00  1.39582879e+01  2.25600000e+01
      79      0    1  1.99404112e+00  1.39582879e+01  2.53800000e+01
      80      0    2  0.00000000e+00  1.19642467e+01  2.53800000e+01
      81      0    1  0.00000000e+00  1.59523290e+01  0.00000000e+00
      82      0    2  1.99404112e+00  1.79463701e+01  0.00000000e+00
      83      0    1  1.99404112e+00  1.79463701e+01  2.82000000e+00
      84      0    2  0.00000000e+00  1.59523290e+01  2.82000000e+00
      85      0    1  0.00000000e+00  1.59523290e+01  5.64000000e+00
      86      0    2  1.99404112e+00  1.79463701e+01  5.64000000e+00
      87      0    1  1.99404112e+00  1.79463701e+01  8.46000000e+00
      88      0    2  0.00000000e+00  1.59523290e+01  8.46000000e+00
      89      0    1  0.00000000e+00  1.59523290e+01  1.12800000e+01
      90      0    2  1.99404112e+00  1.79463701e+01  1.12800000e+01
      91      0    1  1.99404112e+00  1.79463701e+01  1.41000000e+01
      92      0    2  0.00000000e+00  1.59523290e+01  1.41000000e+01
      93      0    1  0.00000000e+00  1.59523290e+01  1.69200000e+01
      94      0    2  1.99404112e+00  1.79463701e+01  1.69200000e+01
      95      0    1  1.99404112e+00  1.79463701e+01  1.97400000e+01
      96      0    2  0.00000000e+00  1.59523290e+01  1.97400000e+01
      97      0    1  0.00000000e+00  1.59523290e+01  2.25600000e+01
      98      0    2  1.99404112e+00  1.79463701e+01  2.25600000e+01
      99      0    1  1.99404112e+00  1.79463701e+01  2.53800000e+01
     100      0    2  0.00000000e+00  1.59523290e+01  2.53800000e+01
     101      0    1  3.98808225e+00  0.00000000e+00  0.00000000e+00
     102      0    2  5.98212337e+00  1.99404112e+00  0.00000000e+00
     103      0    1  5.98212337e+00  1.99404112e+00  2.82000000e+00
     104      0    2  3.98808225e+00  0.00000000e+00  2.82000000e+00
     105      0    1  3.98808225e+00  0.00000000e+00  5.64000000e+00
     106      0    2  5.98212337e+00  1.99404112e+00  5.64000000e+00
     107      0    1  5.98212337e+00  1.99404112e+00  8.46000000e+00
     108      0    2  3.98808225e+00  0.00000000e+00  8.46000000e+00
     109      0    1  3.98808225e+00  0.00000000e+00  1.12800000e+01
     110      0    2  5.98212337e+00  1.99404112e+00  1.12800000e+01
     111      0    1  5.98212337e+00  1.99404112e+00  1.41000000e+01
     112      0    2  3.98808225e+00  0.00000000e+00  1.41000000e+01
     113      0    1  3.98808225e+00  0.00000000e+00  1.69200000e+01
     114      0    2  5.98212337e+00  1.99404112e+00  1.69200000e+01
     115      0    1  5.98212337e+00  1.99404112e+00  1.97400000e+01
     116      0    2  3.98808225e+00  0.00000000e+00  1.97400000e+01
     117      0    1  3.98808225e+00  0.00000000e+00  2.25600000e+01
     118      0    2  5.98212337e+00  1.99404112e+00  2.25600000e+01
     119      0    1  5.98212337e+00  1.99404112e+00  2.53800000e+01
     120      0    2  3.98808225e+00  0.00000000e+00  2.53800000e+01
     121      0    1  3.98808225e+00  3.98808225e+00  0.00000000e+00
     122      0    2  5.98212337e+00  5.98212337e+00  0.00000000e+00
     123      0    1  5.98212337e+00  5.98212337e+00  2.82000000e+00
     124      0    2  3.98808225e+00  3.98808225e+00  2.82000000e+00
     125      0    1  3.98808225e+00  3.98808225e+00  5.64000000e+00
     126      0    2  5.98212337e+00  5.98212337e+00  5.64000000e+00
     127      0    1  5.98212337e+00  5.98212337e+00  8.46000000e+00
     128      0    2  3.98808225e+00  3.98808225e+00  8.46000000e+00
     129      0    1  3.98808225e+00  3.98808225e+00  1.12800000e+01
     130      0    2  5.98212337e+00  5.98212337e+00  1.12800000e+01
     131      0    1  5.98212337e+00  5.98212337e+00  1.41000000e+01
     132      0    2  3.98808225e+00  3.98808225e+00  1.41000000e+01
     133      0    1  3.98808225e+00  3.98808225e+00  1.69200000e+01
     134      0    2  5.98212337e+00  5.98212337e+00  1.69200000e+01
     135      0    1  5.98212337e+00  5.98212337e+00  1.97400000e+01
     136      0    2  3.98808225e+00  3.98808225e+00  1.97400000e+01
     137      0    1  3.98808225e+00  3.98808225e+00  2.25600000e+01
     138      0    2  5.98212337e+00  5.98212337e+00  2.25600000e+01
     139      0    1  5.98212337e+00  5.98212337e+00  2.53800000e+01
     140      0    2  3.98808225e+00  3.98808225e+00  2.53800000e+01
     141      0    1  3.98808225e+00  7.97616449e+00  0.00000000e+00
     142      0    2  5.98212337e+00  9.97020561e+00  0.00000000e+00
     143      0    1  5.98212337e+00  9.97020561e+00  2.82000000e+00
     144      0    2  3.98808225e+00  7.97616449e+00  2.82000000e+00
     145      0    1  3.98808225e+00  7.97616449e+00  5.64000000e+00
     146      0    2  5.98212337e+00  9.97020561e+00  5.64000000e+00
     147      0    1  5.98212337e+00  9.97020561e+00  8.46000000e+00
     148      0    2  3.98808225e+00  7.97616449e+00  8.46000000e+00
     149      0    1  3.98808225e+00  7.97616449e+00  1.12800000e+01
     150      0    2  5.98212337e+00  9.97020561e+00  1.12800000e+01
     151      0    1  5.98212337e+00  9.97020561e+00  1.41000000e+01
     152      0    2  3.98808225e+00  7.97616449e+00  1.41000000e+01
     153      0    1  3.98808225e+00  7.97616449e+00  1.69200000e+01
     154      0    2  5.98212337e+00  9.97020561e+00  1.69200000e+01
     155      0    1  5.98212337e+00  9.97020561e+00  1.97400000e+01
     156      0    2  3.98808225e+00  7.97616449e+00  1.97400000e+01
     157      0    1  3.98808225e+00  7.97616449e+00  2.25600000e+01
     158      0    2  5.98212337e+00  9.97020561e+00  2.25600000e+01
     159      0    1  5.98212337e+00  9.97020561e+00  2.53800000e+01
     160      0    2  3.98808225e+00  7.97616449e+00  2.53800000e+01
     161      0    1  3.98808225e+00  1.19642467e+01  0.00000000e+00
     162      0    2  5.98212337e+00  1.39582879e+01  0.00000000e+00
     163      0    1  5.98212337e+00  1.39582879e+01  2.82000000e+00
     164      0    2  3.98808225e+00  1.19642467e+01  2.82000000e+00
     165      0    1  3.98808225e+00  1.19642467e+01  5.64000000e+00
     166      0    2  5.98212337e+00  1.39582879e+01  5.64000000e+00
     167      0    1  5.98212337e+00  1.39582879e+01  8.46000000e+00
     168      0    2  3.98808225e+00  1.19642467e+01  8.46000000e+00
     169      0    1  3.98808225e+00  1.19642467e+01  1.12800000e+01
     170      0    2  5.98212337e+00  1.39582879e+01  1.12800000e+01
     171      0    1  5.98212337e+00  1.39582879e+01  1.41000000e+01
     172      0    2  3.98808225e+00  1.19642467e+01  1.41000000e+01
     173      0    1  3.98808225e+00  1.19642467e+01  1.69200000e+01
     174      0    2  5.98212337e+00  1.39582879e+01  1.69200000e+01
     175      0    1  5.98212337e+00  1.39582879e+01  1.97400000e+01
     176      0    2  3.98808225e+00  1.19642467e+01  1.97400000e+01
     177      0    1  3.98808225e+00  1.19642467e+01  2.25600000e+01
     178      0    2  5.98212337e+00  1.39582879e+01  2.25600000e+01
     179      0    1  5.98212337e+00  1.39582879e+01  2.53800000e+01
     180      0    2  3.98808225e+00  1.19642467e+01  2.53800000e+01
     181      0    1  3.98808225e+00  1.59523290e+01  0.00000000e+00
     182      0    2  5.98212337e+00  1.79463701e+01  0.00000000e+00
     183      0    1  5.98212337e+00  1.79463701e+01  2.82000000e+00
     184      0    2  3.98808225e+00  1.59523290e+01  2.82000000e+00
     185      0    1  3.98808225e+00  1.59523290e+01  5.64000000e+00
     186      0    2  5.98212337e+00  1.79463701e+01  5.64000000e+00
     187      0    1  5.98212337e+00  1.79463701e+01  8.46000000e+00
     188      0    2  3.98808225e+00  1.59523290e+01  8.46000000e+00
     189      0    1  3.98808225e+00  1.59523290e+01  1.12800000e+01
     190      0    2  5.98212337e+00  1.79463701e+01  1.12800000e+01
     191      0    1  5.98212337e+00  1.79463701e+01  1.41000000e+01
     192      0    2  3.98808225e+00  1.59523290e+01  1.41000000e+01
     193      0    1  3.98808225e+00  1.59523290e+01  1.69200000e+01
     194      0    2  5.98212337e+00  1.79463701e+01  1.69200000e+01
     195      0    1  5.98212337e+00  1.79463701e+01  1.97400000e+01
     196      0    2  3.98808225e+00  1.59523290e+01  1.97400000e+01
     197      0    1  3.98808225e+00  1.59523290e+01  2.25600000e+01
     198      0    2  5.98212337e+00  1.79463701e+01  2.25600000e+01
     199      0    1  5.98212337e+00  1.79463701e+01  2.53800000e+01
     200      0    2  3.98808225e+00  1.59523290e+01  2.53800000e+01
     201      0    1  7.97616449e+00  0.00000000e+00  0.00000000e+00
     202      0    2  9.97020561e+00  1.99404112e+00  0.00000000e+00
     203      0    1  9.97020561e+00  1.99404112e+00  2.82000000e+00
     204      0    2  7.97616449e+00  0.00000000e+00  2.82000000e+00
     205      0    1  7.97616449e+00  0.00000000e+00  5.64000000e+00
     206      0    2  9.97020561e+00  1.99404112e+00  5.64000000e+00
     207      0    1  9.97020561e+00  1.99404112e+00  8.46000000e+00
     208      0    2  7.97616449e+00  0.00000000e+00  8.46000000e+00
     209      0    1  7.97616449e+00  0.00000000e+00  1.12800000e+01
     210      0    2  9.97020561e+00  1.99404112e+00  1.12800000e+01
     211      0    1  9.97020561e+00  1.99404112e+00  1.41000000e+01
     212      0    2  7.97616449e+00  0.00000000e+00  1.41000000e+01
     213      0    1  7.97616449e+00  0.00000000e+00  1.69200000e+01
     214      0    2  9.97020561e+00  1.99404112e+00  1.69200000e+01
     215      0    1  9.97020561e+00  1.99404112e+00  1.97400000e+01
     216      0    2  7.97616449e+00  0.00000000e+00  1.97400000e+01
     217      0    1  7.97616449e+00  0.00000000e+00  2.25600000e+01
     218      0    2  9.97020561e+00  1.99404112e+00  2.25600000e+01
     219      0    1  9.97020561e+00  1.99404112e+00  2.53800000e+01
     220      0    2  7.97616449e+00  0.00000000e+00  2.53800000e+01
     221      0    1  7.97616449e+00  3.98808225e+00  0.00000000e+00
     222      0    2  9.97020561e+00  5.98212337e+00  0.00000000e+00
     223      0    1  9.97020561e+00  5.98212337e+00  2.82000000e+00
     224      0    2  7.97616449e+00  3.98808225e+00  2.82000000e+00
     225      0    1  7.97616449e+00  3.98808225e+00  5.64000000e+00
     226      0    2  9.97020561e+00  5.98212337e+00  5.64000000e+00
     227      0    1  9.97020561e+00  5.98212337e+00  8.46000000e+00
     228      0    2  7.97616449e+00  3.98808225e+00  8.46000000e+00
     229      0    1  7.97616449e+00  3.98808225e+00  1.12800000e+01
     230      0    2  9.97020561e+00  5.98212337e+00  1.12800000e+01
     231      0    1  9.97020561e+00  5.98212337e+00  1.41000000e+01
     232      0    2  7.97616449e+00  3.98808225e+00  1.41000000e+01
     233      0    1  7.97616449e+00  3.98808225e+00  1.69200000e+01
     234      0    2  9.97020561e+00  5.98212337e+00  1.69200000e+01
     235      0    1  9.97020561e+00  5.98212337e+00  1.97400000e+01
     236      0    2  7.97616449e+00  3.98808225e+00  1.97400000e+01
     237      0    1  7.97616449e+00  3.98808225e+00  2.25600000e+01
     238      0    2  9.97020561e+00  5.98212337e+00  2.25600000e+01
     239      0    1  9.97020561e+00  5.98212337e+00  2.53800000e+01
     240      0    2  7.97616449e+00  3.98808225e+00  2.53800000e+01
     241      0    1  7.97616449e+00  7.97616449e+00  0.00000000e+00
     242      0    2  9.97020561e+00  9.97020561e+00  0.00000000e+00
     243      0    1  9.97020561e+00  9.97020561e+00  2.82000000e+00
     244      0    2  7.97616449e+00  7.97616449e+00  2.82000000e+00
     245      0    1  7.97616449e+00  7.97616449e+00  5.64000000e+00
     246      0    2  9.97020561e+00  9.97020561e+00  5.64000000e+00
     247      0    1  9.97020561e+00  9.97020561e+00  8.46000000e+00
     248      0    2  7.97616449e+00  7.97616449e+00  8.46000000e+00
     249      0    1  7.97616449e+00  7.97616449e+00  1.12800000e+01
     250      0    2  9.97020561e+00  9.97020561e+00  1.12800000e+01
     251      0    1  9.97020561e+00  9.97020561e+00  1.41000000e+01
     252      0    2  7.97616449e+00  7.97616449e+00  1.41000000e+01
     253      0    1  7.97616449e+00  7.97616449e+00  1.69200000e+01
     254      0    2  9.97020561e+00  9.97020561e+00  1.69200000e+01
     255      0    1  9.97020561e+00  9.97020561e+00  1.97400000e+01
     256      0    2  7.97616449e+00  7.97616449e+00  1.97400000e+01
     257      0    1  7.97616449e+00  7.97616449e+00  2.25600000e+01
     258      0    2  9.97020561e+00  9.97020561e+00  2.25600000e+01
     259      0    1  9.97020561e+00  9.97020561e+00  2.53800000e+01
     260      0    2  7.97616449e+00  7.97616449e+00  2.53800000e+01
     261      0    1  7.97616449e+00  1.19642467e+01  0.00000000e+00
     262      0    2  9.97020561e+00  1.39582879e+01  0.00000000e+00
     263      0    1  9.97020561e+00  1.39582879e+01  2.82000000e+00
     264      0    2  7.97616449e+00  1.19642467e+01  2.82000000e+00
     265      0    1  7.97616449e+00  1.19642467e+01  5.64000000e+00
     266      0    2  9.97020561e+00  1.39582879e+01  5.64000000e+00
     267      0    1  9.97020561e+00  1.39582879e+01  8.46000000e+00
     268      0    2  7.97616449e+00  1.19642467e+01  8.46000000e+00
     269      0    1  7.97616449e+00  1.19642467e+01  1.12800000e+01
     270      0    2  9.97020561e+00  1.39582879e+01  1.12800000e+01
     271      0    1  9.97020561e+00  1.39582879e+01  1.41000000e+01
     272      0    2  7.97616449e+00  1.19642467e+01  1.41000000e+01
     273      0    1  7.97616449e+00  1.19642467e+01  1.69200000e+01
     274      0    2  9.97020561e+00  1.39582879e+01  1.69200000e+01
     275      0    1  9.97020561e+00  1.39582879e+01  1.97400000e+01
     276      0    2  7.97616449e+00  1.19642467e+01  1.97400000e+01
     277      0    1  7.97616449e+00  1.19642467e+01  2.25600000e+01
     278      0    2  9.97020561e+00  1.39582879e+01  2.25600000e+01
     279      0    1  9.97020561e+00  1.39582879e+01  2.53800000e+01
     280      0    2  7.97616449e+00  1.19642467e+01  2.53800000e+01
     281      0    1  7.97616449e+00  1.59523290e+01  0.00000000e+00
     282      0    2  9.97020561e+00  1.79463701e+01  0.00000000e+00
     283      0    1  9.97020561e+00  1.79463701e+01  2.82000000e+00
     284      0    2  7.97616449e+00  1.59523290e+01  2.82000000e+00
     285      0    1  7.97616449e+00  1.59523290e+01  5.64000000e+00
     286      0    2  9.97020561e+00  1.79463701e+01  5.64000000e+00
     287      0    1  9.97020561e+00  1.79463701e+01  8.46000000e+00
     288      0    2  7.97616449e+00  1.59523290e+01  8.46000000e+00
     289      0    1  7.97616449e+00  1.59523290e+01  1.12800000e+01
     290      0    2  9.97020561e+00  1.79463701e+01  1.12800000e+01
     291      0    1  9.97020561e+00  1.79463701e+01  1.41000000e+01
     292      0    2  7.97616449e+00  1.59523290e+01  1.41000000e+01
     293      0    1  7.97616449e+00  1.59523290e+01  1.69200000e+01
     294      0    2  9.97020561e+00  1.79463701e+01  1.69200000e+01
     295      0    1  9.97020561e+00  1.79463701e+01  1.97400000e+01
     296      0    2  7.97616449e+00  1.59523290e+01  1.97400000e+01
     297      0    1  7.97616449e+00  1.59523290e+01  2.25600000e+01
     298      0    2  9.97020561e+00  1.79463701e+01  2.25600000e+01
     299      0    1  9.97020561e+00  1.79463701e+01  2.53800000e+01
     300      0    2  7.97616449e+00  1.59523290e+01  2.53800000e+01
     301      0    1  1.19642467e+01  0.00000000e+00  0.00000000e+00
     302      0    2  1.39582879e+01  1.99404112e+00  0.00000000e+00
     303      0    1  1.39582879e+01  1.99404112e+00  2.82000000e+00
     304      0    2  1.19642467e+01  0.00000000e+00  2.82000000e+00
     305      0    1  1.19642467e+01  0.00000000e+00  5.64000000e+00
     306      0    2  1.39582879e+01  1.99404112e+00  5.64000000e+00
     307      0    1  1.39582879e+01  1.99404112e+00  8.46000000e+00
     308      0    2  1.19642467e+01  0.00000000e+00  8.46000000e+00
     309      0    1  1.19642467e+01  0.00000000e+00  1.12800000e+01
     310      0    2  1.39582879e+01  1.99404112e+00  1.12800000e+01
     311      0    1  1.39582879e+01  1.99404112e+00  1.41000000e+01
     312      0    2  1.19642467e+01  0.00000000e+00  1.41000000e+01
     313      0    1  1.19642467e+01  0.00000000e+00  1.69200000e+01
     314      0    2  1.39582879e+01  1.99404112e+00  1.69200000e+01
     315      0    1  1.39582879e+01  1.99404112e+00  1.97400000e+01
     316      0    2  1.19642467e+01  0.00000000e+00  1.97400000e+01
     317      0    1  1.19642467e+01  0.00000000e+00  2.25600000e+01
     318      0    2  1.39582879e+01  1.99404112e+00  2.25600000e+01
     319      0    1  1.39582879e+01  1.99404112e+00  2.53800000e+01
     320      0    2  1.19642467e+01  0.00000000e+00  2.53800000e+01
     321      0    1  1.19642467e+01  3.98808225e+00  0.00000000e+00
     322      0    2  1.39582879e+01  5.98212337e+00  0.00000000e+00
     323      0    1  1.39582879e+01  5.98212337e+00  2.82000000e+00
     324      0    2  1.19642467e+01  3.98808225e+00  2.82000000e+00
     325      0    1  1.19642467e+01  3.98808225e+00  5.64000000e+00
     326      0    2  1.39582879e+01  5.98212337e+00  5.64000000e+00
     327      0    1  1.39582879e+01  5.98212337e+00  8.46000000e+00
     328      0    2  1.19642467e+01  3.98808225e+00  8.46000000e+00
     329      0    1  1.19642467e+01  3.98808225e+00  1.12800000e+01
     330      0    2  1.39582879e+01  5.98212337e+00  1.12800000e+01
     331      0    1  1.39582879e+01  5.98212337e+00  1.41000000e+01
     332      0    2  1.19642467e+01  3.98808225e+00  1.41000000e+01
     333      0    1  1.19642467e+01  3.98808225e+00  1.69200000e+01
     334      0    2  1.39582879e+01  5.98212337e+00  1.69200000e+01
     335      0    1  1.39582879e+01  5.98212337e+00  1.97400000e+01
     336      0    2  1.19642467e+01  3.98808225e+00  1.97400000e+01
     337      0    1  1.19642467e+01  3.98808225e+00  2.25600000e+01
     338      0    2  1.39582879e+01  5.98212337e+00  2.25600000e+01
     339      0    1  1.39582879e+01  5.98212337e+00  2.53800000e+01
     340      0    2  1.19642467e+01  3.98808225e+00  2.53800000e+01
     341      0    1  1.19642467e+01  7.97616449e+00  0.00000000e+00
     342      0    2  1.39582879e+01  9.97020561e+00  0.00000000e+00
     343      0    1  1.39582879e+01  9.97020561e+00  2.82000000e+00
     344      0    2  1.19642467e+01  7.97616449e+00  2.82000000e+00
     345      0    1  1.19642467e+01  7.97616449e+00  5.64000000e+00
     346      0    2  1.39582879e+01  9.97020561e+00  5.64000000e+00
     347      0    1  1.39582879e+01  9.97020561e+00  8.46000000e+00
     348      0    2  1.19642467e+01  7.97616449e+00  8.46000000e+00
     349      0    1  1.19642467e+01  7.97616449e+00  1.12800000e+01
     350      0    2  1.39582879e+01  9.97020561e+00  1.12800000e+01
     351      0    1  1.39582879e+01  9.97020561e+00  1.41000000e+01
     352      0    2  1.19642467e+01  7.97616449e+00  1.41000000e+01
     353      0    1  1.19642467e+01  7.97616449e+00  1.69200000e+01
     354      0    2  1.39582879e+01  9.97020561e+00  1.69200000e+01
     355      0    1  1.39582879e+01  9.97020561e+00  1.97400000e+01
     356      0    2  1.19642467e+01  7.97616449e+00  1.97400000e+01
     357      0    1  1.19642467e+01  7.97616449e+00  2.25600000e+01
     358      0    2  1.39582879e+01  9.97020561e+00  2.25600000e+01
     359      0    1  1.39582879e+01  9.97020561e+00  2.53800000e+01
     360      0    2  1.19642467e+01  7.97616449e+00  2.53800000e+01
     361      0    1  1.19642467e+01  1.19642467e+01  0.00000000e+00
     362      0    2  1.39582879e+01  1.39582879e+01  0.00000000e+00
     363      0    1  1.39582879e+01  1.39582879e+01  2.82000000e+00
     364      0    2  1.19642467e+01  1.19642467e+01  2.82000000e+00
     365      0    1  1.19642467e+01  1.19642467e+01  5.64000000e+00
     366      0    2  1.39582879e+01  1.39582879e+01  5.64000000e+00
     367      0    1  1.39582879e+01  1.39582879e+01  8.46000000e+00
     368      0    2  1.19642467e+01  1.19642467e+01  8.46000000e+00
     369      0    1  1.19642467e+01  1.19642467e+01  1.12800000e+01
     370      0    2  1.39582879e+01  1.39582879e+01  1.12800000e+01
     371      0    1  1.39582879e+01  1.39582879e+01  1.41000000e+01
     372      0    2  1.19642467e+01  1.19642467e+01  1.41000000e+01
     373      0    1  1.19642467e+01  1.19642467e+01  1.69200000e+01
     374      0    2  1.39582879e+01  1.39582879e+01  1.69200000e+01
     375      0    1  1.39582879e+01  1.39582879e+01  1.97400000e+01
     376      0    2  1.19642467e+01  1.19642467e+01  1.97400000e+01
     377      0    1  1.19642467e+01  1.19642467e+01  2.25600000e+01
     378      0    2  1.39582879e+01  1.39582879e+01  2.25600000e+01
     379      0    1  1.39582879e+01  1.39582879e+01  2.53800000e+01
     380      0    2  1.19642467e+01  1.19642467e+01  2.53800000e+01
     381      0    1  1.19642467e+01  1.59523290e+01  0.00000000e+00
     382      0    2  1.39582879e+01  1.79463701e+01  0.00000000e+00
     383      0    1  1.39582879e+01  1.79463701e+01  2.82000000e+00
     384      0    2  1.19642467e+01  1.59523290e+01  2.82000000e+00
     385      0    1  1.19642467e+01  1.59523290e+01  5.64000000e+00
     386      0    2  1.39582879e+01  1.79463701e+01  5.64000000e+00
     387      0    1  1.39582879e+01  1.79463701e+01  8.46000000e+00
     388      0    2  1.19642467e+01  1.59523290e+01  8.46000000e+00
     389      0    1  1.19642467e+01  1.59523290e+01  1.12800000e+01
     390      0    2  1.39582879e+01  1.79463701e+01  1.12800000e+01
     391      0    1  1.39582879e+01  1.79463701e+01  1.41000000e+01
     392      0    2  1.19642467e+01  1.59523290e+01  1.41000000e+01
     393      0    1  1.19642467e+01  1.59523290e+01  1.69200000e+01
     394      0    2  1.39582879e+01  1.79463701e+01  1.69200000e+01
     395      0    1  1.39582879e+01  1.79463701e+01  1.97400000e+01
     396      0    2  1.19642467e+01  1.59523290e+01  1.97400000e+01
     397      0    1  1.19642467e+01  1.59523290e+01  2.25600000e+01
     398      0    2  1.39582879e+01  1.79463701e+01  2.25600000e+01
     399      0    1  1.39582879e+01  1.79463701e+01  2.53800000e+01
     400      0    2  1.19642467e+01  1.59523290e+01  2.53800000e+01
     401      0    1  1.59523290e+01  0.00000000e+00  0.00000000e+00
     402      0    2  1.79463701e+01  1.99404112e+00  0.00000000e+00
     403      0    1  1.79463701e+01  1.99404112e+00  2.82000000e+00
     404      0    2  1.59523290e+01  0.00000000e+00  2.82000000e+00
     405      0    1  1.59523290e+01  0.00000000e+00  5.64000000e+00
     406      0    2  1.79463701e+01  1.99404112e+00  5.64000000e+00
     407      0    1  1.79463701e+01  1.99404112e+00  8.46000000e+00
     408      0    2  1.59523290e+01  0.00000000e+00  8.46000000e+00
     409      0    1  1.59523290e+01  0.00000000e+00  1.12800000e+01
     410      0    2  1.79463701e+01  1.99404112e+00  1.12800000e+01
     411      0    1  1.79463701e+01  1.99404112e+00  1.41000000e+01
     412      0    2  1.59523290e+01  0.00000000e+00  1.41000000e+01
     413      0    1  1.59523290e+01  0.00000000e+00  1.69200000e+01
     414      0    2  1.79463701e+01  1.99404112e+00  1.69200000e+01
     415      0    1  1.79463701e+01  1.99404112e+00  1.97400000e+01
     416      0    2  1.59523290e+01  0.00000000e+00  1.97400000e+01
     417      0    1  1.59523290e+01  0.00000000e+00  2.25600000e+01
     418      0    2  1.79463701e+01  1.99404112e+00  2.25600000e+01
     419      0    1  1.79463701e+01  1.99404112e+00  2.53800000e+01
     420      0    2  1.59523290e+01  0.00000000e+00  2.53800000e+01
     421      0    1  1.59523290e+01  3.98808225e+00  0.00000000e+00
     422      0    2  1.79463701e+01  5.98212337e+00  0.00000000e+00
     423      0    1  1.79463701e+01  5.98212337e+00  2.82000000e+00
     424      0    2  1.59523290e+01  3.98808225e+00  2.82000000e+00
     425      0    1  1.59523290e+01  3.98808225e+00  5.64000000e+00
     426      0    2  1.79463701e+01  5.98212337e+00  5.64000000e+00
     427      0    1  1.79463701e+01  5.98212337e+00  8.46000000e+00
     428      0    2  1.59523290e+01  3.98808225e+00  8.46000000e+00
     429      0    1  1.59523290e+01  3.98808225e+00  1.12800000e+01