# written by ease4lmp.LammpsWriter at 2019/02/15 21:21:43

6 atoms
5 bonds
7 angles
3 dihedrals
4 impropers

4 atom types
3 bond types
3 angle types
1 dihedral types
2 improper types

-2.50000000e+00 2.50000000e+00  xlo xhi
-2.50000000e+00 2.50000000e+00  ylo yhi
-2.50000000e+00 2.50000000e+00  zlo zhi

Masses

   1  12.011000
   2  15.999000
   3   1.008000
   4   1.008000

Atoms

       1      1    1  6.00995000e-02  6.48430000e-01  0.00000000e+00
       2      1    2  6.00995000e-02 -7.74510000e-01  0.00000000e+00
       3      1    3 -9.85764500e-01  9.53826000e-01  0.00000000e+00
       4      1    4  9.85764500e-01 -1.06441700e+00  0.00000000e+00
       5      1    3  5.44375500e-01  1.06441700e+00  8.91772000e-01
       6      1    3  5.44375500e-01  1.06441700e+00 -8.91772000e-01

Velocities

       1 -4.22245861e-02  5.38029239e-02 -6.00986097e-02
       2  1.00358384e-02  9.60884412e-02  2.77679034e-02
       3 -9.41607874e-02  1.36421992e-02  2.28870452e-03
       4 -8.91148289e-02 -7.57460030e-02  6.75112883e-02
       5  5.22823384e-02 -2.19332736e-02 -3.83120108e-02
       6 -8.33090942e-03 -1.07379015e-02  3.99996999e-02

Bonds

1 1 1 2
2 3 2 4
3 2 1 6
4 2 1 5
5 2 1 3

Angles

1 2 2 1 3
2 2 2 1 5
3 2 2 1 6
4 1 3 1 5
5 1 3 1 6
6 1 5 1 6
7 3 1 2 4

Dihedrals

1 1 5 1 2 4
2 1 4 2 1 3
3 1 4 2 1 6

Impropers

1 1 1 2 3 5
2 1 1 2 3 6
3 1 1 2 5 6
4 2 1 3 5 6
