# written by ease4lmp.LammpsWriter at 2019/02/15 07:29:08

8 atoms
7 bonds
10 angles
8 dihedrals
5 impropers

6 atom types
5 bond types
6 angle types
4 dihedral types
3 improper types

-2.50000000e+00 2.50000000e+00  xlo xhi
-2.50000000e+00 2.50000000e+00  ylo yhi
-2.50000000e+00 2.50000000e+00  zlo zhi

Masses

   1  12.011000
   2  15.999000
   3  15.999000
   4   1.008000
   5  12.011000
   6   1.008000

Atoms

       1      1    1 -9.02715000e-02  2.38694500e-01  0.00000000e+00
       2      1    2  7.61125000e-02  1.44421850e+00  0.00000000e+00
       3      1    3 -1.32672050e+00 -3.30901500e-01  0.00000000e+00
       4      1    4 -1.95791750e+00  4.17716500e-01  0.00000000e+00
       5      1    5  9.83504500e-01 -8.08613500e-01  0.00000000e+00
       6      1    6  1.95791750e+00 -3.24000500e-01  0.00000000e+00
       7      1    6  8.78389500e-01 -1.44421850e+00  8.81747000e-01
       8      1    6  8.78389500e-01 -1.44421850e+00 -8.81747000e-01

Velocities

       1  8.29621058e-02 -4.39217417e-02 -8.73189745e-02
       2  9.81333859e-02  3.85126748e-02  7.48392956e-02
       3 -3.19302240e-02  3.59830308e-02 -6.64770694e-02
       4  7.47141224e-02  1.57811416e-02  2.49924737e-02
       5 -4.61747713e-02  9.77365746e-02 -3.44516707e-02
       6 -2.21723635e-02 -4.49030465e-02  4.43104533e-02
       7  1.87202072e-03  1.89343620e-02  7.93981662e-02
       8  2.36983913e-02 -2.69506167e-02  5.00956597e-02

Bonds

1 1 1 2
2 3 5 8
3 5 3 4
4 3 5 7
5 4 1 5
6 3 5 6
7 2 1 3

Angles

1 6 2 1 3
2 3 2 1 5
3 1 3 1 5
4 5 1 3 4
5 4 1 5 6
6 4 1 5 7
7 4 1 5 8
8 2 6 5 7
9 2 6 5 8
10 2 7 5 8

Dihedrals

1 3 5 1 3 4
2 4 2 1 5 7
3 2 3 1 5 6
4 2 3 1 5 8
5 1 4 3 1 2
6 4 6 5 1 2
7 4 8 5 1 2
8 2 7 5 1 3

Impropers

1 1 1 2 3 5
2 2 5 1 6 7
3 2 5 1 6 8
4 2 5 1 7 8
5 3 5 6 7 8
