# written by ease4lmp.LammpsWriter at 2019/02/15 07:29:07

6 atoms
5 bonds
7 angles
3 dihedrals
4 impropers

4 atom types
3 bond types
3 angle types
1 dihedral types
2 improper types

-2.50000000e+00 2.50000000e+00  xlo xhi
-2.50000000e+00 2.50000000e+00  ylo yhi
-2.50000000e+00 2.50000000e+00  zlo zhi

Masses

   1  12.011000
   2  15.999000
   3   1.008000
   4   1.008000

Atoms

       1      1    1  6.00995000e-02  6.48430000e-01  0.00000000e+00
       2      1    2  6.00995000e-02 -7.74510000e-01  0.00000000e+00
       3      1    3 -9.85764500e-01  9.53826000e-01  0.00000000e+00
       4      1    4  9.85764500e-01 -1.06441700e+00  0.00000000e+00
       5      1    3  5.44375500e-01  1.06441700e+00  8.91772000e-01
       6      1    3  5.44375500e-01  1.06441700e+00 -8.91772000e-01

Velocities

       1  9.36782692e-02 -8.58115864e-02 -4.50924238e-02
       2 -8.49325575e-02 -4.93219255e-02  6.22219579e-02
       3 -8.09402111e-02  5.76500228e-02  8.54279004e-02
       4 -1.30237379e-03 -4.62086858e-02 -2.40798639e-02
       5 -4.15023958e-02  9.45366417e-02 -5.49965361e-02
       6  5.46647469e-02  9.58255294e-02  3.74284064e-02

Bonds

1 1 1 2
2 3 2 4
3 2 1 6
4 2 1 5
5 2 1 3

Angles

1 2 2 1 3
2 2 2 1 5
3 2 2 1 6
4 1 3 1 5
5 1 3 1 6
6 1 5 1 6
7 3 1 2 4

Dihedrals

1 1 5 1 2 4
2 1 4 2 1 3
3 1 4 2 1 6

Impropers

1 1 1 2 3 5
2 1 1 2 3 6
3 1 1 2 5 6
4 2 1 3 5 6
